ITEM: TIMESTEP
0
ITEM: NUMBER OF ATOMS
366
ITEM: BOX BOUNDS xy xz yz pp pp pp
-1.2319982022628347e+01 2.4639964097579806e+01 -1.2319981999517386e+01
0.0000000000000000e+00 2.1338836547813113e+01 -2.3110959800000005e-08
0.0000000000000000e+00 3.0000000000000000e+01 1.5983935192090731e-07
ITEM: ATOMS id type xs ys zs
1 1 0.00546448 0.0765027 0.383333
2 1 0.153005 0.142077 0.383333
3 1 0.0874317 0.224044 0.383333
123 2 0.0765027 0.0710383 0.331156
127 2 0.15847 0.218579 0.331156
185 2 0.010929 0.153005 0.331156
5 1 0.36612 0.125683 0.383333
6 1 0.300546 0.20765 0.383333
43 1 0.218579 0.0601093 0.383333
125 2 0.224044 0.136612 0.331156
133 2 0.371585 0.202186 0.331156
207 2 0.289617 0.0546448 0.331156
11 1 0.579235 0.10929 0.383333
12 1 0.513661 0.191257 0.383333
52 1 0.431694 0.0437159 0.383333
131 2 0.437158 0.120219 0.331156
145 2 0.584699 0.185792 0.331156
225 2 0.502732 0.0382514 0.331156
20 1 0.79235 0.0928962 0.383333
21 1 0.726776 0.174863 0.383333
33 1 0.874317 0.240437 0.383333
58 1 0.644809 0.0273224 0.383333
143 2 0.650273 0.103825 0.331156
163 2 0.797814 0.169399 0.331156
237 2 0.715847 0.0218579 0.331156
32 1 0.939891 0.15847 0.383333
61 1 0.857924 0.010929 0.383333
161 2 0.863388 0.0874317 0.331156
187 2 0.945355 0.234973 0.331156
243 2 0.928962 0.00546449 0.331156
4 1 0.0218579 0.306011 0.383333
9 1 0.103825 0.453552 0.383333
209 2 0.0273224 0.382514 0.331156
7 1 0.234973 0.289617 0.383333
8 1 0.169399 0.371585 0.383333
15 1 0.31694 0.437158 0.383333
129 2 0.0928962 0.300546 0.331156
137 2 0.240437 0.36612 0.331156
139 2 0.174863 0.448087 0.331156
13 1 0.448087 0.273224 0.383333
14 1 0.382514 0.355191 0.383333
24 1 0.530055 0.420765 0.383333
135 2 0.306011 0.284153 0.331156
149 2 0.453552 0.349727 0.331156
151 2 0.387978 0.431694 0.331156
171 2 0.535519 0.497268 0.331156
22 1 0.661202 0.256831 0.383333
23 1 0.595628 0.338798 0.383333
35 1 0.743169 0.404372 0.383333
36 1 0.677596 0.486339 0.383333
147 2 0.519126 0.26776 0.331156
167 2 0.666667 0.333333 0.331156
169 2 0.601093 0.415301 0.331156
193 2 0.748634 0.480874 0.331156
34 1 0.808743 0.322404 0.383333
44 1 0.956284 0.387978 0.383333
45 1 0.89071 0.469945 0.383333
165 2 0.73224 0.251366 0.331156
189 2 0.879781 0.31694 0.331156
191 2 0.814208 0.398907 0.331156
211 2 0.961749 0.464481 0.331156
10 1 0.0382514 0.535519 0.383333
17 1 0.185792 0.601093 0.383333
18 1 0.120219 0.68306 0.383333
28 1 0.26776 0.748634 0.383333
141 2 0.10929 0.530055 0.331156
157 2 0.191257 0.677596 0.331156
227 2 0.0437159 0.612022 0.331156
16 1 0.251366 0.519126 0.383333
26 1 0.398907 0.584699 0.383333
27 1 0.333333 0.666667 0.383333
39 1 0.480874 0.73224 0.383333
153 2 0.322404 0.513661 0.331156
155 2 0.256831 0.595628 0.331156
175 2 0.404372 0.661202 0.331156
177 2 0.338798 0.743169 0.331156
25 1 0.464481 0.502732 0.383333
37 1 0.612022 0.568306 0.383333
38 1 0.546448 0.650273 0.383333
48 1 0.693989 0.715847 0.383333
173 2 0.469945 0.579235 0.331156
197 2 0.617486 0.644809 0.331156
199 2 0.551913 0.726776 0.331156
46 1 0.825137 0.551913 0.383333
47 1 0.759563 0.63388 0.383333
54 1 0.907104 0.699454 0.383333
195 2 0.68306 0.562842 0.331156
215 2 0.830601 0.628415 0.331156
217 2 0.765027 0.710383 0.331156
53 1 0.972678 0.617486 0.383333
213 2 0.896175 0.546448 0.331156
229 2 0.978142 0.693989 0.331156
19 1 0.0546448 0.765027 0.383333
30 1 0.136612 0.912568 0.383333
31 1 0.0710383 0.994536 0.383333
183 2 0.142077 0.989071 0.331156
239 2 0.0601093 0.84153 0.331156
29 1 0.202186 0.830601 0.383333
41 1 0.349727 0.896175 0.383333
42 1 0.284153 0.978142 0.383333
159 2 0.125683 0.759563 0.331156
179 2 0.273224 0.825137 0.331156
181 2 0.20765 0.907104 0.331156
205 2 0.355191 0.972678 0.331156
40 1 0.415301 0.814208 0.383333
50 1 0.562842 0.879781 0.383333
51 1 0.497268 0.961749 0.383333
201 2 0.486339 0.808743 0.331156
203 2 0.420765 0.89071 0.331156
223 2 0.568306 0.956284 0.331156
49 1 0.628415 0.797814 0.383333
56 1 0.775956 0.863388 0.383333
57 1 0.710383 0.945355 0.383333
219 2 0.699454 0.79235 0.331156
221 2 0.63388 0.874317 0.331156
235 2 0.781421 0.939891 0.331156
55 1 0.84153 0.781421 0.383333
59 1 0.989071 0.846995 0.383333
60 1 0.923497 0.928962 0.383333
231 2 0.912568 0.775956 0.331156
233 2 0.846995 0.857924 0.331156
241 2 0.994536 0.923497 0.331156
124 2 0.0765027 0.0710383 0.435511
128 2 0.15847 0.218579 0.435511
186 2 0.010929 0.153005 0.435511
245 2 0.0710383 0.0765027 0.564489
249 2 0.218579 0.15847 0.564489
251 2 0.136612 0.224044 0.564489
126 2 0.224044 0.136612 0.435511
134 2 0.371585 0.202186 0.435511
208 2 0.289617 0.0546448 0.435511
247 2 0.300546 0.0928962 0.564489
257 2 0.36612 0.240437 0.564489
329 2 0.153005 0.010929 0.564489
132 2 0.437158 0.120219 0.435511
146 2 0.584699 0.185792 0.435511
226 2 0.502732 0.0382514 0.435511
253 2 0.530055 0.10929 0.564489
255 2 0.448087 0.174863 0.564489
347 2 0.382514 0.0273224 0.564489
144 2 0.650273 0.103825 0.435511
164 2 0.797814 0.169399 0.435511
238 2 0.715847 0.0218579 0.435511
265 2 0.759563 0.125683 0.564489
267 2 0.677596 0.191257 0.564489
359 2 0.612022 0.0437159 0.564489
162 2 0.863388 0.0874317 0.435511
188 2 0.945355 0.234973 0.435511
244 2 0.928962 0.00546448 0.435511
283 2 0.989071 0.142077 0.564489
285 2 0.907104 0.20765 0.564489
365 2 0.84153 0.0601093 0.564489
210 2 0.0273224 0.382514 0.435511
263 2 0.120219 0.437158 0.564489
307 2 0.0546448 0.289617 0.564489
130 2 0.0928962 0.300546 0.435511
138 2 0.240437 0.36612 0.435511
140 2 0.174863 0.448087 0.435511
259 2 0.284153 0.306011 0.564489
261 2 0.202186 0.371585 0.564489
275 2 0.349727 0.453552 0.564489
136 2 0.306011 0.284153 0.435511
150 2 0.453552 0.349727 0.435511
152 2 0.387978 0.431694 0.435511
172 2 0.535519 0.497268 0.435511
271 2 0.513661 0.322404 0.564489
273 2 0.431694 0.387978 0.564489
293 2 0.579235 0.469945 0.564489
148 2 0.519126 0.26776 0.435511
168 2 0.666667 0.333333 0.435511
170 2 0.601093 0.415301 0.435511
194 2 0.748634 0.480874 0.435511
269 2 0.595628 0.256831 0.564489
291 2 0.661202 0.404372 0.564489
313 2 0.808743 0.486339 0.564489
166 2 0.73224 0.251366 0.435511
190 2 0.879781 0.31694 0.435511
192 2 0.814208 0.398907 0.435511
212 2 0.961749 0.464481 0.435511
287 2 0.825137 0.273224 0.564489
289 2 0.743169 0.338798 0.564489
311 2 0.89071 0.420765 0.564489
309 2 0.972678 0.355191 0.564489
349 2 0.0218579 0.715847 0.564489
142 2 0.10929 0.530055 0.435511
158 2 0.191257 0.677596 0.435511
228 2 0.0437158 0.612022 0.435511
279 2 0.185792 0.584699 0.564489
281 2 0.103825 0.650273 0.564489
301 2 0.251366 0.73224 0.564489
331 2 0.0382514 0.502732 0.564489
154 2 0.322404 0.513661 0.435511
156 2 0.256831 0.595628 0.435511
176 2 0.404372 0.661202 0.435511
178 2 0.338798 0.743169 0.435511
277 2 0.26776 0.519126 0.564489
297 2 0.415301 0.601093 0.564489
299 2 0.333333 0.666667 0.564489
321 2 0.480874 0.748634 0.564489
174 2 0.469945 0.579235 0.435511
198 2 0.617486 0.644809 0.435511
200 2 0.551913 0.726776 0.435511
295 2 0.497268 0.535519 0.564489
317 2 0.644809 0.617486 0.564489
319 2 0.562842 0.68306 0.564489
196 2 0.68306 0.562842 0.435511
216 2 0.830601 0.628415 0.435511
218 2 0.765027 0.710383 0.435511
315 2 0.726776 0.551913 0.564489
335 2 0.874317 0.63388 0.564489
337 2 0.79235 0.699454 0.564489
214 2 0.896175 0.546448 0.435511
230 2 0.978142 0.693989 0.435511
333 2 0.956284 0.568306 0.564489
184 2 0.142077 0.989071 0.435511
240 2 0.0601093 0.84153 0.435511
305 2 0.0874317 0.863388 0.564489
361 2 0.00546448 0.928962 0.564489
160 2 0.125683 0.759563 0.435511
180 2 0.273224 0.825137 0.435511
182 2 0.20765 0.907104 0.435511
206 2 0.355191 0.972678 0.435511
303 2 0.169399 0.797814 0.564489
325 2 0.31694 0.879781 0.564489
327 2 0.234973 0.945355 0.564489
202 2 0.486339 0.808743 0.435511
204 2 0.420765 0.89071 0.435511
224 2 0.568306 0.956284 0.435511
323 2 0.398907 0.814208 0.564489
343 2 0.546448 0.896175 0.564489
345 2 0.464481 0.961749 0.564489
220 2 0.699454 0.79235 0.435511
222 2 0.63388 0.874317 0.435511
236 2 0.781421 0.939891 0.435511
339 2 0.710383 0.765027 0.564489
341 2 0.628415 0.830601 0.564489
355 2 0.775956 0.912568 0.564489
357 2 0.693989 0.978142 0.564489
232 2 0.912568 0.775956 0.435511
234 2 0.846995 0.857924 0.435511
242 2 0.994536 0.923497 0.435511
351 2 0.939891 0.781421 0.564489
353 2 0.857923 0.846995 0.564489
363 2 0.923497 0.994536 0.564489
64 1 0.142077 0.153005 0.616667
65 1 0.0601093 0.218579 0.616667
104 1 0.0765027 0.00546449 0.616667
246 2 0.0710383 0.0765027 0.668844
250 2 0.218579 0.15847 0.668844
252 2 0.136612 0.224044 0.668844
63 1 0.224044 0.0874317 0.616667
67 1 0.371585 0.169399 0.616667
68 1 0.289617 0.234973 0.616667
113 1 0.306011 0.0218579 0.616667
248 2 0.300546 0.0928962 0.668844
258 2 0.36612 0.240437 0.668844
330 2 0.153005 0.010929 0.668844
66 1 0.453552 0.103825 0.616667
73 1 0.601093 0.185792 0.616667
119 1 0.535519 0.0382514 0.616667
254 2 0.530055 0.10929 0.668844
256 2 0.448087 0.174863 0.668844
348 2 0.382514 0.0273224 0.668844
72 1 0.68306 0.120219 0.616667
82 1 0.830601 0.202186 0.616667
122 1 0.765027 0.0546448 0.616667
266 2 0.759563 0.125683 0.668844
268 2 0.677596 0.191257 0.668844
360 2 0.612022 0.0437159 0.668844
62 1 0.994536 0.0710383 0.616667
81 1 0.912568 0.136612 0.616667
284 2 0.989071 0.142077 0.668844
286 2 0.907104 0.20765 0.668844
366 2 0.84153 0.0601093 0.668844
71 1 0.0437159 0.431694 0.616667
264 2 0.120219 0.437158 0.668844
308 2 0.0546448 0.289617 0.668844
69 1 0.20765 0.300546 0.616667
70 1 0.125683 0.36612 0.616667
77 1 0.273224 0.448087 0.616667
260 2 0.284153 0.306011 0.668844
262 2 0.202186 0.371585 0.668844
276 2 0.349727 0.453552 0.668844
75 1 0.437158 0.31694 0.616667
76 1 0.355191 0.382514 0.616667
86 1 0.502732 0.464481 0.616667
272 2 0.513661 0.322404 0.668844
274 2 0.431694 0.387978 0.668844
294 2 0.579235 0.469945 0.668844
74 1 0.519126 0.251366 0.616667
84 1 0.666667 0.333333 0.616667
85 1 0.584699 0.398907 0.616667
96 1 0.73224 0.480874 0.616667
270 2 0.595628 0.256831 0.668844
292 2 0.661202 0.404372 0.668844
314 2 0.808743 0.486339 0.668844
83 1 0.748634 0.26776 0.616667
94 1 0.896175 0.349727 0.616667
95 1 0.814208 0.415301 0.616667
105 1 0.961749 0.497268 0.616667
288 2 0.825137 0.273224 0.668844
290 2 0.743169 0.338798 0.668844
312 2 0.89071 0.420765 0.668844
93 1 0.978142 0.284153 0.616667
310 2 0.972678 0.355191 0.668844
80 1 0.0273224 0.644809 0.616667
350 2 0.0218579 0.715847 0.668844
79 1 0.10929 0.579235 0.616667
89 1 0.256831 0.661202 0.616667
90 1 0.174863 0.726776 0.616667
280 2 0.185792 0.584699 0.668844
282 2 0.103825 0.650273 0.668844
302 2 0.251366 0.73224 0.668844
332 2 0.0382514 0.502732 0.668844
78 1 0.191257 0.513661 0.616667
88 1 0.338798 0.595628 0.616667
100 1 0.404372 0.743169 0.616667
278 2 0.26776 0.519126 0.668844
298 2 0.415301 0.601093 0.668844
300 2 0.333333 0.666667 0.668844
322 2 0.480874 0.748634 0.668844
87 1 0.420765 0.530055 0.616667
98 1 0.568306 0.612022 0.616667
99 1 0.486339 0.677596 0.616667
296 2 0.497268 0.535519 0.668844
318 2 0.644809 0.617486 0.668844
320 2 0.562842 0.68306 0.668844
97 1 0.650273 0.546448 0.616667
107 1 0.797814 0.628415 0.616667
108 1 0.715847 0.693989 0.616667
316 2 0.726776 0.551913 0.668844
336 2 0.874317 0.63388 0.668844
338 2 0.79235 0.699454 0.668844
106 1 0.879781 0.562842 0.616667
114 1 0.945355 0.710383 0.616667
334 2 0.956284 0.568306 0.668844
91 1 0.0928962 0.79235 0.616667
92 1 0.010929 0.857924 0.616667
103 1 0.15847 0.939891 0.616667
306 2 0.0874317 0.863388 0.668844
362 2 0.00546448 0.928962 0.668844
101 1 0.322404 0.808743 0.616667
102 1 0.240437 0.874317 0.616667
112 1 0.387978 0.956284 0.616667
304 2 0.169399 0.797814 0.668844
326 2 0.31694 0.879781 0.668844
328 2 0.234973 0.945355 0.668844
110 1 0.551913 0.825137 0.616667
111 1 0.469945 0.89071 0.616667
118 1 0.617486 0.972678 0.616667
324 2 0.398907 0.814208 0.668844
344 2 0.546448 0.896175 0.668844
346 2 0.464481 0.961749 0.668844
109 1 0.63388 0.759563 0.616667
117 1 0.699454 0.907104 0.616667
121 1 0.846995 0.989071 0.616667
340 2 0.710383 0.765027 0.668844
342 2 0.628415 0.830601 0.668844
356 2 0.775956 0.912568 0.668844
358 2 0.693989 0.978142 0.668844
115 1 0.863388 0.775956 0.616667
116 1 0.781421 0.84153 0.616667
120 1 0.928962 0.923497 0.616667
352 2 0.939891 0.781421 0.668844
354 2 0.857923 0.846995 0.668844
364 2 0.923497 0.994536 0.668844
ITEM: TIMESTEP
10
ITEM: NUMBER OF ATOMS
366
ITEM: BOX BOUNDS xy xz yz pp pp pp
-1.2319982022628347e+01 2.4639964097579806e+01 -1.2319981999517386e+01
0.0000000000000000e+00 2.1338836547813113e+01 -2.3110959800000005e-08
0.0000000000000000e+00 3.0000000000000000e+01 1.5983935192090731e-07
ITEM: ATOMS id type xs ys zs
1 1 0.00546505 0.0765029 0.383344
2 1 0.153006 0.142076 0.383344
3 1 0.0874326 0.224043 0.383344
123 2 0.0765028 0.0710381 0.331107
127 2 0.15847 0.218579 0.331107
185 2 0.010929 0.153005 0.331107
5 1 0.366119 0.125683 0.383345
6 1 0.300547 0.207651 0.383345
43 1 0.218579 0.0601089 0.383344
125 2 0.224044 0.136612 0.331107
133 2 0.371585 0.202186 0.331109
207 2 0.289618 0.0546449 0.331108
11 1 0.579233 0.10929 0.383346
12 1 0.51366 0.191258 0.383345
52 1 0.431692 0.0437161 0.383345
131 2 0.437159 0.120219 0.331109
145 2 0.584699 0.185793 0.33111
225 2 0.502732 0.038252 0.331109
20 1 0.792349 0.0928966 0.383345
21 1 0.726775 0.174863 0.383345
33 1 0.874317 0.240436 0.383345
58 1 0.644807 0.0273231 0.383345
143 2 0.650273 0.103826 0.331109
163 2 0.797814 0.169399 0.331109
237 2 0.715848 0.0218587 0.331108
32 1 0.939891 0.15847 0.383344
61 1 0.857924 0.0109299 0.383344
161 2 0.863388 0.0874321 0.331107
187 2 0.945355 0.234973 0.331108
243 2 0.928962 0.00546469 0.331107
4 1 0.0218583 0.30601 0.383345
9 1 0.103825 0.45355 0.383345
209 2 0.0273219 0.382513 0.331109
7 1 0.234974 0.289618 0.383345
8 1 0.1694 0.371584 0.383345
15 1 0.316942 0.437159 0.383345
129 2 0.092896 0.300546 0.331108
137 2 0.240437 0.366119 0.331108
139 2 0.174863 0.448087 0.331108
13 1 0.448088 0.273225 0.383345
14 1 0.382516 0.355193 0.383345
24 1 0.530057 0.420767 0.383346
135 2 0.306011 0.284152 0.331108
149 2 0.453552 0.349727 0.331109
151 2 0.387978 0.431693 0.331109
171 2 0.53552 0.497268 0.331109
22 1 0.661201 0.25683 0.383345
23 1 0.595629 0.338799 0.383345
35 1 0.74317 0.404371 0.383345
36 1 0.677597 0.48634 0.383345
147 2 0.519126 0.26776 0.33111
167 2 0.666667 0.333333 0.33111
169 2 0.601093 0.415301 0.33111
193 2 0.748634 0.480874 0.33111
34 1 0.808742 0.322403 0.383345
44 1 0.956284 0.387976 0.383345
45 1 0.89071 0.469943 0.383346
165 2 0.73224 0.251366 0.33111
189 2 0.879781 0.31694 0.331109
191 2 0.814207 0.398907 0.33111
211 2 0.961748 0.46448 0.331109
10 1 0.0382508 0.535517 0.383346
17 1 0.185792 0.601092 0.383346
18 1 0.120217 0.683058 0.383345
28 1 0.267759 0.748634 0.383345
141 2 0.109289 0.530054 0.331109
157 2 0.191256 0.677596 0.331108
227 2 0.043715 0.612022 0.331109
16 1 0.251366 0.519125 0.383345
26 1 0.398908 0.5847 0.383346
27 1 0.333333 0.666667 0.383346
39 1 0.480875 0.732241 0.383345
153 2 0.322404 0.513661 0.331108
155 2 0.25683 0.595628 0.331108
175 2 0.404372 0.661202 0.331108
177 2 0.338798 0.74317 0.331108
25 1 0.464483 0.502734 0.383346
37 1 0.612024 0.568308 0.383345
38 1 0.54645 0.650275 0.383345
48 1 0.69399 0.715849 0.383345
173 2 0.469946 0.579235 0.331109
197 2 0.617487 0.644809 0.331109
199 2 0.551913 0.726776 0.331108
46 1 0.825137 0.551912 0.383345
47 1 0.759564 0.633881 0.383345
54 1 0.907103 0.699453 0.383345
195 2 0.68306 0.562841 0.331109
215 2 0.830601 0.628415 0.331109
217 2 0.765027 0.710382 0.331108
53 1 0.972677 0.617484 0.383345
213 2 0.896174 0.546448 0.331109
229 2 0.978141 0.693989 0.331108
19 1 0.0546434 0.765026 0.383345
30 1 0.136611 0.912567 0.383344
31 1 0.0710378 0.994535 0.383344
183 2 0.142076 0.989071 0.331107
239 2 0.0601087 0.84153 0.331107
29 1 0.202184 0.8306 0.383345
41 1 0.349725 0.896175 0.383345
42 1 0.284151 0.978142 0.383345
159 2 0.125682 0.759563 0.331108
179 2 0.273224 0.825137 0.331108
181 2 0.20765 0.907104 0.331108
205 2 0.355191 0.972678 0.331109
40 1 0.4153 0.814208 0.383346
50 1 0.562841 0.879783 0.383345
51 1 0.497266 0.961749 0.383346
201 2 0.486339 0.808744 0.331108
203 2 0.420765 0.890711 0.331109
223 2 0.568307 0.956285 0.331109
49 1 0.628416 0.797816 0.383345
56 1 0.775957 0.863389 0.383344
57 1 0.710382 0.945357 0.383345
219 2 0.699454 0.79235 0.331108
221 2 0.633881 0.874318 0.331108
235 2 0.781421 0.939891 0.331107
55 1 0.84153 0.781421 0.383344
59 1 0.98907 0.846994 0.383344
60 1 0.923497 0.928962 0.383344
231 2 0.912568 0.775956 0.331107
233 2 0.846995 0.857924 0.331107
241 2 0.994535 0.923497 0.331107
124 2 0.0765046 0.0710377 0.435575
128 2 0.158473 0.218579 0.435578
186 2 0.0109327 0.153009 0.435576
245 2 0.0710377 0.0765046 0.564425
249 2 0.218579 0.158473 0.564422
251 2 0.136609 0.224046 0.564422
126 2 0.224046 0.136609 0.435578
134 2 0.371587 0.202183 0.43558
208 2 0.289619 0.0546404 0.43558
247 2 0.300551 0.0928999 0.56442
257 2 0.366119 0.240439 0.564419
329 2 0.153009 0.0109327 0.564424
132 2 0.43716 0.120216 0.435581
146 2 0.5847 0.185793 0.435582
226 2 0.502735 0.0382514 0.435583
253 2 0.53006 0.10929 0.564416
255 2 0.448091 0.174865 0.564417
347 2 0.38252 0.0273258 0.564418
144 2 0.650276 0.103829 0.435582
164 2 0.797817 0.169405 0.43558
238 2 0.71585 0.0218635 0.43558
265 2 0.759561 0.125681 0.564419
267 2 0.677598 0.191257 0.564417
359 2 0.612023 0.0437127 0.564417
162 2 0.863391 0.0874373 0.435578
188 2 0.94536 0.234979 0.43558
244 2 0.928962 0.00546692 0.435575
283 2 0.989067 0.142077 0.564424
285 2 0.9071 0.207651 0.56442
365 2 0.841527 0.0601061 0.564422
210 2 0.0273258 0.38252 0.435582
263 2 0.120216 0.43716 0.564419
307 2 0.0546404 0.289619 0.564421
130 2 0.0928999 0.300551 0.43558
138 2 0.240439 0.366119 0.435581
140 2 0.174865 0.448091 0.435583
259 2 0.28415 0.306013 0.56442
261 2 0.202183 0.371587 0.56442
275 2 0.349724 0.453553 0.564418
136 2 0.306013 0.28415 0.43558
150 2 0.453553 0.349724 0.435582
152 2 0.387977 0.43169 0.435583
172 2 0.535516 0.497265 0.435583
271 2 0.513659 0.322402 0.564417
273 2 0.43169 0.387977 0.564417
293 2 0.57923 0.46994 0.564416
148 2 0.519127 0.267758 0.435581
168 2 0.666667 0.333333 0.435581
170 2 0.601092 0.4153 0.435582
194 2 0.748631 0.480873 0.435581
269 2 0.59563 0.25683 0.564416
291 2 0.6612 0.40437 0.564416
313 2 0.808743 0.486341 0.564417
166 2 0.732242 0.251369 0.435581
190 2 0.879784 0.316945 0.435581
192 2 0.814207 0.398908 0.435582
212 2 0.961749 0.464484 0.435583
287 2 0.825136 0.273226 0.564417
289 2 0.74317 0.3388 0.564416
311 2 0.89071 0.42077 0.564416
309 2 0.972674 0.355194 0.564418
349 2 0.0218635 0.71585 0.56442
142 2 0.10929 0.53006 0.435584
158 2 0.191257 0.677598 0.435583
228 2 0.0437127 0.612023 0.435583
279 2 0.185793 0.5847 0.564418
281 2 0.103829 0.650276 0.564418
301 2 0.251369 0.732242 0.564419
331 2 0.0382514 0.502735 0.564417
154 2 0.322402 0.513659 0.435583
156 2 0.25683 0.59563 0.435584
176 2 0.40437 0.6612 0.435584
178 2 0.3388 0.74317 0.435584
277 2 0.267758 0.519127 0.564419
297 2 0.4153 0.601092 0.564418
299 2 0.333333 0.666667 0.564419
321 2 0.480873 0.748631 0.564419
174 2 0.46994 0.57923 0.435584
198 2 0.61748 0.644806 0.435582
200 2 0.551909 0.726774 0.435583
295 2 0.497265 0.535516 0.564417
317 2 0.644806 0.61748 0.564418
319 2 0.56284 0.683055 0.564419
196 2 0.683055 0.56284 0.435581
216 2 0.830595 0.628413 0.43558
218 2 0.765021 0.710381 0.435579
315 2 0.726774 0.551909 0.564417
335 2 0.874319 0.633881 0.564419
337 2 0.792349 0.699449 0.56442
214 2 0.896171 0.546447 0.435582
230 2 0.978137 0.693987 0.43558
333 2 0.956287 0.56831 0.564417
184 2 0.142077 0.989067 0.435576
240 2 0.0601061 0.841527 0.435578
305 2 0.0874373 0.863391 0.564422
361 2 0.00546691 0.928962 0.564425
160 2 0.125681 0.759561 0.435581
180 2 0.273226 0.825136 0.435583
182 2 0.207651 0.9071 0.43558
206 2 0.355194 0.972674 0.435582
303 2 0.169405 0.797817 0.56442
325 2 0.316945 0.879784 0.564419
327 2 0.234979 0.94536 0.564421
202 2 0.486341 0.808743 0.435583
204 2 0.42077 0.89071 0.435584
224 2 0.56831 0.956287 0.435583
323 2 0.398908 0.814207 0.564418
343 2 0.546447 0.896171 0.564418
345 2 0.464484 0.961749 0.564417
220 2 0.699449 0.792349 0.43558
222 2 0.633881 0.874319 0.435581
236 2 0.781421 0.939894 0.435578
339 2 0.710381 0.765021 0.564421
341 2 0.628413 0.830595 0.56442
355 2 0.775954 0.912563 0.564422
357 2 0.693987 0.978137 0.56442
232 2 0.912563 0.775954 0.435578
234 2 0.846991 0.857923 0.435576
242 2 0.994533 0.923495 0.435575
351 2 0.939894 0.781421 0.564422
353 2 0.857923 0.846991 0.564424
363 2 0.923495 0.994533 0.564425
64 1 0.142076 0.153006 0.616656
65 1 0.0601089 0.218579 0.616656
104 1 0.0765029 0.00546506 0.616656
246 2 0.0710381 0.0765028 0.668893
250 2 0.218579 0.15847 0.668893
252 2 0.136612 0.224044 0.668893
63 1 0.224043 0.0874326 0.616656
67 1 0.371584 0.1694 0.616655
68 1 0.289618 0.234974 0.616655
113 1 0.30601 0.0218583 0.616655
248 2 0.300546 0.092896 0.668892
258 2 0.366119 0.240437 0.668892
330 2 0.153005 0.010929 0.668893
66 1 0.45355 0.103825 0.616655
73 1 0.601092 0.185792 0.616654
119 1 0.535517 0.0382509 0.616654
254 2 0.530054 0.109289 0.668891
256 2 0.448087 0.174863 0.668892
348 2 0.382513 0.0273219 0.668891
72 1 0.683058 0.120217 0.616655
82 1 0.8306 0.202184 0.616655
122 1 0.765026 0.0546434 0.616655
266 2 0.759563 0.125682 0.668892
268 2 0.677596 0.191256 0.668892
360 2 0.612022 0.043715 0.668891
62 1 0.994535 0.0710378 0.616656
81 1 0.912567 0.136611 0.616656
284 2 0.989071 0.142076 0.668893
286 2 0.907104 0.20765 0.668892
366 2 0.84153 0.0601087 0.668893
71 1 0.0437161 0.431692 0.616655
264 2 0.120219 0.437159 0.668891
308 2 0.0546449 0.289618 0.668892
69 1 0.207651 0.300547 0.616655
70 1 0.125683 0.366119 0.616655
77 1 0.273225 0.448088 0.616655
260 2 0.284152 0.306011 0.668892
262 2 0.202186 0.371585 0.668891
276 2 0.349727 0.453552 0.668891
75 1 0.437159 0.316942 0.616655
76 1 0.355193 0.382516 0.616655
86 1 0.502734 0.464483 0.616654
272 2 0.513661 0.322404 0.668892
274 2 0.431693 0.387978 0.668891
294 2 0.579235 0.469946 0.668891
74 1 0.519125 0.251366 0.616655
84 1 0.666667 0.333333 0.616654
85 1 0.5847 0.398908 0.616654
96 1 0.732241 0.480875 0.616655
270 2 0.595628 0.25683 0.668892
292 2 0.661202 0.404372 0.668892
314 2 0.808744 0.486339 0.668892
83 1 0.748634 0.267759 0.616655
94 1 0.896175 0.349725 0.616655
95 1 0.814208 0.4153 0.616654
105 1 0.961749 0.497266 0.616654
288 2 0.825137 0.273224 0.668892
290 2 0.74317 0.338798 0.668892
312 2 0.890711 0.420765 0.668891
93 1 0.978142 0.284151 0.616655
310 2 0.972678 0.355191 0.668891
80 1 0.0273231 0.644807 0.616655
350 2 0.0218587 0.715848 0.668892
79 1 0.10929 0.579233 0.616654
89 1 0.25683 0.661201 0.616655
90 1 0.174863 0.726775 0.616655
280 2 0.185793 0.584699 0.66889
282 2 0.103826 0.650273 0.668891
302 2 0.251366 0.73224 0.66889
332 2 0.038252 0.502732 0.668891
78 1 0.191258 0.51366 0.616655
88 1 0.338799 0.595629 0.616655
100 1 0.404371 0.74317 0.616655
278 2 0.26776 0.519126 0.66889
298 2 0.415301 0.601093 0.66889
300 2 0.333333 0.666667 0.66889
322 2 0.480874 0.748634 0.66889
87 1 0.420767 0.530057 0.616654
98 1 0.568308 0.612024 0.616655
99 1 0.48634 0.677597 0.616655
296 2 0.497268 0.53552 0.668891
318 2 0.644809 0.617487 0.668891
320 2 0.562841 0.68306 0.668891
97 1 0.650275 0.54645 0.616655
107 1 0.797816 0.628416 0.616655
108 1 0.715849 0.69399 0.616655
316 2 0.726776 0.551913 0.668892
336 2 0.874318 0.633881 0.668892
338 2 0.79235 0.699454 0.668892
106 1 0.879783 0.562841 0.616655
114 1 0.945357 0.710382 0.616655
334 2 0.956285 0.568307 0.668891
91 1 0.0928966 0.792349 0.616655
92 1 0.0109299 0.857924 0.616656
103 1 0.15847 0.939891 0.616656
306 2 0.0874321 0.863388 0.668893
362 2 0.00546468 0.928962 0.668893
101 1 0.322403 0.808743 0.616655
102 1 0.240436 0.874317 0.616655
112 1 0.387976 0.956284 0.616655
304 2 0.169399 0.797814 0.668891
326 2 0.31694 0.879781 0.668891
328 2 0.234973 0.945355 0.668892
110 1 0.551912 0.825137 0.616655
111 1 0.469943 0.89071 0.616654
118 1 0.617484 0.972677 0.616655
324 2 0.398907 0.814207 0.66889
344 2 0.546448 0.896174 0.668891
346 2 0.46448 0.961748 0.668891
109 1 0.633881 0.759564 0.616655
117 1 0.699453 0.907103 0.616655
121 1 0.846994 0.98907 0.616656
340 2 0.710382 0.765027 0.668892
342 2 0.628415 0.830601 0.668891
356 2 0.775956 0.912568 0.668893
358 2 0.693989 0.978141 0.668892
115 1 0.863389 0.775957 0.616656
116 1 0.781421 0.84153 0.616656
120 1 0.928962 0.923497 0.616656
352 2 0.939891 0.781421 0.668893
354 2 0.857924 0.846995 0.668893
364 2 0.923497 0.994535 0.668893
ITEM: TIMESTEP
20
ITEM: NUMBER OF ATOMS
366
ITEM: BOX BOUNDS xy xz yz pp pp pp
-1.2319982022628347e+01 2.4639964097579806e+01 -1.2319981999517386e+01
0.0000000000000000e+00 2.1338836547813113e+01 -2.3110959800000005e-08
0.0000000000000000e+00 3.0000000000000000e+01 1.5983935192090731e-07
ITEM: ATOMS id type xs ys zs
1 1 0.00546815 0.0765046 0.383384
2 1 0.15301 0.142075 0.383386
3 1 0.0874382 0.224044 0.383389
123 2 0.0765033 0.0710376 0.331013
127 2 0.158472 0.218578 0.331016
185 2 0.0109299 0.153006 0.331014
5 1 0.366118 0.125682 0.383393
6 1 0.300551 0.20765 0.383391
43 1 0.218578 0.0601056 0.383388
125 2 0.224045 0.136611 0.331016
133 2 0.371586 0.202186 0.331022
207 2 0.289617 0.0546449 0.331019
11 1 0.579227 0.109291 0.383397
12 1 0.513657 0.191259 0.383396
52 1 0.431687 0.0437155 0.383396
131 2 0.437158 0.12022 0.331024
145 2 0.584698 0.185793 0.331027
225 2 0.502732 0.0382538 0.331025
20 1 0.79235 0.0929011 0.383391
21 1 0.726772 0.174863 0.383395
33 1 0.874318 0.240436 0.383393
58 1 0.644805 0.0273276 0.383396
143 2 0.650272 0.103827 0.331025
163 2 0.797814 0.1694 0.331022
237 2 0.715848 0.0218615 0.331021
32 1 0.939894 0.158473 0.383388
61 1 0.857925 0.0109353 0.383386
161 2 0.863389 0.0874339 0.331016
187 2 0.945355 0.234973 0.331019
243 2 0.928962 0.00546575 0.331013
4 1 0.021862 0.306009 0.383393
9 1 0.103826 0.453548 0.383396
209 2 0.0273208 0.382511 0.331023
7 1 0.234981 0.289618 0.383392
8 1 0.169405 0.371584 0.383394
15 1 0.316947 0.43716 0.383396
129 2 0.0928965 0.300545 0.331019
137 2 0.240439 0.366118 0.33102
139 2 0.174862 0.448085 0.331021
13 1 0.448092 0.273228 0.383395
14 1 0.382523 0.355195 0.383396
24 1 0.530064 0.420773 0.383397
135 2 0.306014 0.284152 0.331021
149 2 0.453555 0.349728 0.331025
151 2 0.387981 0.431693 0.331024
171 2 0.535522 0.497268 0.331025
22 1 0.661197 0.256829 0.383396
23 1 0.595632 0.338803 0.383396
35 1 0.743171 0.404368 0.383396
36 1 0.677602 0.486343 0.383396
147 2 0.519127 0.267761 0.331026
167 2 0.666667 0.333333 0.331027
169 2 0.601095 0.415302 0.331027
193 2 0.748635 0.480873 0.331026
34 1 0.808741 0.322398 0.383396
44 1 0.956285 0.387971 0.383396
45 1 0.890709 0.469936 0.383397
165 2 0.732239 0.251365 0.331026
189 2 0.87978 0.316938 0.331024
191 2 0.814207 0.398905 0.331027
211 2 0.961746 0.464478 0.331025
10 1 0.0382487 0.535511 0.383398
17 1 0.18579 0.60109 0.383398
18 1 0.120213 0.683053 0.383396
28 1 0.267757 0.748632 0.383397
141 2 0.109287 0.530052 0.331023
157 2 0.191254 0.677595 0.331022
227 2 0.0437122 0.612019 0.331024
16 1 0.251368 0.519124 0.383397
26 1 0.39891 0.584701 0.383398
27 1 0.333333 0.666667 0.383398
39 1 0.480876 0.732243 0.383397
153 2 0.322405 0.513659 0.331022
155 2 0.256829 0.595627 0.331022
175 2 0.404373 0.661202 0.331022
177 2 0.338798 0.743171 0.331022
25 1 0.464489 0.502738 0.383398
37 1 0.612029 0.568313 0.383396
38 1 0.546452 0.650278 0.383396
48 1 0.693991 0.715853 0.383393
173 2 0.469948 0.579235 0.331023
197 2 0.617489 0.64481 0.331023
199 2 0.551915 0.726778 0.331021
46 1 0.825137 0.551908 0.383395
47 1 0.759564 0.633882 0.383393
54 1 0.907099 0.699449 0.383391
195 2 0.683062 0.562842 0.331024
215 2 0.8306 0.628414 0.331022
217 2 0.765027 0.710383 0.331019
53 1 0.972672 0.617477 0.383396
213 2 0.896173 0.546445 0.331025
229 2 0.978138 0.693986 0.331021
19 1 0.0546368 0.765019 0.383392
30 1 0.136606 0.912562 0.383389
31 1 0.0710365 0.994532 0.383384
183 2 0.142076 0.98907 0.331014
239 2 0.0601062 0.841528 0.331016
29 1 0.202179 0.830595 0.383394
41 1 0.349722 0.896174 0.383396
42 1 0.284147 0.978138 0.383393
159 2 0.125679 0.759562 0.33102
179 2 0.273222 0.825138 0.331021
181 2 0.207648 0.907103 0.331019
205 2 0.35519 0.972679 0.331023
40 1 0.415299 0.81421 0.383398
50 1 0.56284 0.879787 0.383396
51 1 0.497262 0.961751 0.383398
201 2 0.486341 0.808746 0.331022
203 2 0.420765 0.890713 0.331023
223 2 0.568307 0.956288 0.331024
49 1 0.628416 0.797821 0.383394
56 1 0.775956 0.863394 0.383389
57 1 0.710382 0.945363 0.383392
219 2 0.699455 0.792352 0.331019
221 2 0.633882 0.874321 0.33102
235 2 0.781422 0.939894 0.331016
55 1 0.841527 0.781422 0.383388
59 1 0.989065 0.84699 0.383386
60 1 0.923495 0.928964 0.383384
231 2 0.912566 0.775955 0.331016
233 2 0.846994 0.857924 0.331014
241 2 0.994534 0.923497 0.331013
124 2 0.07651 0.0710358 0.435728
128 2 0.158484 0.218579 0.435738
186 2 0.0109436 0.153019 0.435733
245 2 0.0710358 0.07651 0.564272
249 2 0.218579 0.158484 0.564262
251 2 0.1366 0.224054 0.564262
126 2 0.224054 0.1366 0.435738
134 2 0.371595 0.202174 0.435749
208 2 0.289624 0.054628 0.435745
247 2 0.300561 0.0929111 0.564254
257 2 0.366117 0.240444 0.564248
329 2 0.153019 0.0109436 0.564267
132 2 0.437164 0.120208 0.435753
146 2 0.584702 0.185794 0.435754
226 2 0.502742 0.0382518 0.435759
253 2 0.530073 0.10929 0.564239
255 2 0.4481 0.174868 0.564243
347 2 0.382536 0.0273353 0.564244
144 2 0.650282 0.103841 0.435754
164 2 0.797826 0.169421 0.435749
238 2 0.715858 0.02188 0.435749
265 2 0.759556 0.125673 0.564248
267 2 0.677604 0.191255 0.56424
359 2 0.612025 0.0437031 0.564242
162 2 0.8634 0.0874535 0.435738
188 2 0.945372 0.234996 0.435745
244 2 0.928964 0.00547421 0.435728
283 2 0.989056 0.142076 0.564267
285 2 0.907089 0.20765 0.564254
365 2 0.841516 0.0600957 0.564262
210 2 0.0273352 0.382536 0.435756
263 2 0.120208 0.437164 0.564247
307 2 0.054628 0.289624 0.564255
130 2 0.0929111 0.300561 0.435746
138 2 0.240444 0.366117 0.435752
140 2 0.174868 0.4481 0.435757
259 2 0.284142 0.306022 0.564251